                         Program Version 5.0.4 -  RELEASE  -
|  1> ! B3LYP def2-SVP Opt
|  2>
|  3> # My first ORCA calculation
|  4>
|  5> *xyz 0 1
|  6> O        0.000000000      0.000000000      0.000000000
|  7> H        0.000000000      0.759337000      0.596043000
|  8> H        0.000000000     -0.759337000      0.596043000
|  9>
| 10> *
| 11>
| 12>                          ****END OF INPUT****
 Total Charge           Charge          ....    0
 Multiplicity           Mult            ....    1
 Number of Electrons    NEL             ....   10
FINAL SINGLE POINT ENERGY       -76.321256941836
FINAL SINGLE POINT ENERGY       -76.321266938549
FINAL SINGLE POINT ENERGY       -76.321269919378
                    ***********************HURRAY********************

CARTESIAN COORDINATES (ANGSTROEM)
---------------------------------
  O      0.000000   -0.000000   -0.003566
  H      0.000000    0.757136    0.597826
  H      0.000000   -0.757136    0.597826

 Multiplicity           Mult            ....    1
 Number of Electrons    NEL             ....   10
 Basis Dimension        Dim             ....   24

ORBITAL ENERGIES
----------------

  NO   OCC          E(Eh)            E(eV)
   0   2.0000     -19.116107      -520.1757
   1   2.0000      -0.976140       -26.5621
   2   2.0000      -0.508033       -13.8243
   3   2.0000      -0.364390        -9.9156
   4   2.0000      -0.288148        -7.8409
   5   0.0000       0.047713         1.2983
   6   0.0000       0.126621         3.4455
   7   0.0000       0.558298        15.1921
   8   0.0000       0.623852        16.9759
   9   0.0000       0.920748        25.0548

MULLIKEN ATOMIC CHARGES
-----------------------
   0 O :   -0.293607
   1 H :    0.146803
   2 H :    0.146803
Sum of atomic charges:   -0.0000000

LOEWDIN ATOMIC CHARGES
----------------------
   0 O :   -0.150133
   1 H :    0.075066
   2 H :    0.075066

  Mayer bond orders larger than 0.100000
B(  0-O ,  1-H ) :   1.0081 B(  0-O ,  2-H ) :   1.0081

FINAL SINGLE POINT ENERGY       -76.321269931014

DIPOLE MOMENT
-------------
                                X             Y             Z
Electronic contribution:      0.00000      -0.00000      -0.21270
Nuclear contribution   :      0.00000       0.00000       1.00115
                        -----------------------------------------
Total Dipole Moment    :      0.00000      -0.00000       0.78845
                        -----------------------------------------
Magnitude (a.u.)       :      0.78845
Magnitude (Debye)      :      2.00407

Rotational constants in cm-1:    26.033542    14.586735     9.348641
Rotational constants in MHz : 780465.953121 437299.314825 280265.200140

                             ****ORCA TERMINATED NORMALLY****
TOTAL RUN TIME: 0 days 0 hours 0 minutes 6 seconds 86 msec
