                         Program Version 5.0.4 -  RELEASE  -
|  1> !B3LYP DEF2-SVP LARGEPRINT
|  2> * xyz 0 1
|  3> O         -3.56626        1.77639        0.00000
|  4> H         -2.59626        1.77639        0.00000
|  5> H         -3.88959        1.36040       -0.81444
|  6> *
|  7> %elprop
|  8> Polar 1
|  9> endd                         ****END OF INPUT****

CARTESIAN COORDINATES (ANGSTROEM)
---------------------------------
  O     -3.566260    1.776390    0.000000
  H     -2.596260    1.776390    0.000000
  H     -3.889590    1.360400   -0.814440

 Total Charge           Charge          ....    0
 Multiplicity           Mult            ....    1
 Number of Electrons    NEL             ....   10
 Basis Dimension        Dim             ....   24

ORBITAL ENERGIES
----------------

  NO   OCC          E(Eh)            E(eV)
   0   2.0000     -19.113314      -520.0997
   1   2.0000      -0.969453       -26.3801
   2   2.0000      -0.517348       -14.0778
   3   2.0000      -0.351580        -9.5670
   4   2.0000      -0.285812        -7.7773
   5   0.0000       0.048000         1.3061
   6   0.0000       0.126240         3.4352
   7   0.0000       0.576278        15.6813
   8   0.0000       0.597764        16.2660
   9   0.0000       0.917738        24.9729

------------------
MOLECULAR ORBITALS
------------------
                      0         1         2         3         4         5
                 -19.11331  -0.96945  -0.51735  -0.35158  -0.28581   0.04800
                   2.00000   2.00000   2.00000   2.00000   2.00000   0.00000
                  --------  --------  --------  --------  --------  --------
  0O   1s        -0.988799 -0.277705  0.000008  0.105379  0.000001  0.105378
  0O   2s         0.039541 -0.553745  0.000023  0.208259 -0.000011  0.170746
  0O   3s        -0.014076 -0.267723  0.000010  0.350638  0.000056  0.976723
  0O   1pz       -0.002134  0.083254 -0.257587  0.402808  0.289963 -0.173906
  0O   1px        0.001697 -0.066099 -0.409071 -0.319849 -0.000004  0.138082
  0O   1py       -0.001091  0.042522 -0.131574  0.205777 -0.567650 -0.088816
  0O   2pz        0.000078  0.002487 -0.099878  0.262062  0.223709 -0.241006
  0O   2px       -0.000064 -0.001988 -0.158621 -0.208096 -0.000016  0.191371
  0O   2py        0.000042  0.001283 -0.051031  0.133871 -0.438013 -0.123096
  0O   1dz2       0.000066 -0.000878  0.014217 -0.005383 -0.010840  0.002522
  0O   1dxz       0.000603 -0.001087  0.006520  0.012659  0.004962 -0.004182
  0O   1dyz       0.000757 -0.004181  0.008384 -0.009174  0.009054  0.005797
  0O   1dx2y2     0.000980 -0.004528 -0.012492 -0.003948 -0.006259  0.004015
  0O   1dxy       0.000310 -0.000552  0.003333  0.006466 -0.009715 -0.002140
  1H   1s        -0.002397 -0.198955 -0.331262 -0.190473 -0.000007 -0.123708
  1H   2s         0.002391 -0.014448 -0.103374 -0.066747  0.000002 -0.828849
  1H   1pz       -0.000029  0.006565 -0.010041  0.022753  0.013562 -0.003370
  1H   1px        0.003281  0.033551  0.028023  0.010325  0.000000 -0.000931
  1H   1py       -0.000015  0.003352 -0.005129  0.011623 -0.026546 -0.001723
  2H   1s        -0.002397 -0.198944  0.331260 -0.190497 -0.000040 -0.123717
  2H   2s         0.002390 -0.014446  0.103351 -0.066802 -0.000030 -0.828848
  2H   1pz       -0.002764 -0.025983  0.026874 -0.001088  0.013557 -0.000341
  2H   1px       -0.001061 -0.018130 -0.001285 -0.027526 -0.000005  0.003874
  2H   1py       -0.001412 -0.013273  0.013726 -0.000557 -0.026543 -0.000170
                      6         7         8         9        10        11
                   0.12624   0.57628   0.59776   0.91774   0.92511   1.00739
                   0.00000   0.00000   0.00000   0.00000   0.00000   0.00000
                  --------  --------  --------  --------  --------  --------
  0O   1s        -0.000002  0.000002  0.100989 -0.114720  0.000264  0.000045
  0O   2s         0.000006  0.000025  0.352025 -0.462762  0.000922  0.000322
  0O   3s        -0.000022 -0.000061 -0.329849 -0.073717  0.000849 -0.000662
  0O   1pz       -0.188965 -0.165609 -0.241542 -0.592309  0.440601 -0.388132
  0O   1px       -0.300057 -0.262975  0.191785  0.471374 -0.001104 -0.616394
  0O   1py       -0.096506 -0.084609 -0.123361 -0.305543 -0.858179 -0.198623
  0O   2pz       -0.313840 -0.187319 -0.040315  0.846988 -0.466239  0.908549
  0O   2px       -0.498339 -0.297483  0.032039 -0.673814  0.001460  1.442575
  0O   2py       -0.160298 -0.095645 -0.020596  0.435792  0.905976  0.464444
  0O   1dz2       0.006113 -0.066071 -0.001261 -0.001738 -0.001583 -0.010224
  0O   1dxz       0.002803 -0.030289 -0.048644  0.009306  0.000689 -0.004654
  0O   1dyz       0.003605 -0.038968 -0.045925  0.001469  0.001335 -0.006028
  0O   1dx2y2    -0.005371  0.058049 -0.064271  0.005113 -0.000958  0.008987
  0O   1dxy       0.001433 -0.015471 -0.024851  0.004762 -0.001427 -0.002394
  1H   1s         0.095179  0.961148 -0.876582  0.366722 -0.001026 -0.382088
  1H   2s         1.271760 -0.818954  0.627505  0.045294  0.000046 -0.783343
  1H   1pz       -0.003127 -0.063666 -0.083005  0.078929 -0.010408  0.061751
  1H   1px        0.003069  0.106972 -0.171387 -0.121704  0.000281  0.257465
  1H   1py       -0.001595 -0.032514 -0.042402  0.040382  0.019723  0.031534
  2H   1s        -0.095195 -0.961147 -0.876544  0.366637 -0.001247  0.382381
  2H   2s        -1.271740  0.818997  0.627506  0.045058 -0.000534  0.783606
  2H   1pz        0.003616  0.111044  0.116227  0.128422 -0.010598  0.195705
  2H   1px       -0.002286 -0.031735  0.144997 -0.043065  0.000088  0.151100
  2H   1py        0.001847  0.056715  0.059370  0.065671  0.019616  0.099984
                     12        13        14        15        16        17
                   1.08754   1.33269   1.47614   1.57736   1.74724   2.21176
                   0.00000   0.00000   0.00000   0.00000   0.00000   0.00000
                  --------  --------  --------  --------  --------  --------
  0O   1s        -0.263234  0.000010  0.080789 -0.000002 -0.000006  0.000001
  0O   2s        -1.628814  0.000051  0.651581 -0.000014 -0.000041  0.000003
  0O   3s         2.845735 -0.000083 -1.456622  0.000027  0.000116 -0.000051
  0O   1pz        0.045194 -0.000015 -0.082644 -0.001494 -0.054975  0.384219
  0O   1px       -0.036182 -0.000014  0.065619 -0.000002 -0.087308  0.610113
  0O   1py        0.023324  0.000012 -0.042244  0.002937 -0.028080  0.196257
  0O   2pz       -0.398464  0.000025  0.789854  0.265441  0.469080  0.116622
  0O   2px        0.316943  0.000045 -0.627082  0.000011  0.744993  0.185178
  0O   2py       -0.203759 -0.000028  0.403447 -0.519720  0.239582  0.059558
  0O   1dz2       0.009024 -0.070032  0.062594  0.118684  0.010844  0.112681
  0O   1dxz      -0.043553 -0.064206 -0.143082 -0.054412  0.004983  0.051631
  0O   1dyz      -0.003528  0.058513  0.110267 -0.099172  0.006398  0.066470
  0O   1dx2y2    -0.020752 -0.040431  0.051131  0.068523 -0.009539 -0.099005
  0O   1dxy      -0.022225  0.125737 -0.073077  0.106530  0.002535  0.026397
  1H   1s        -0.470190 -0.000019  0.642394 -0.000010 -0.392466 -0.237040
  1H   2s        -0.546692  0.000006  0.154614 -0.000007 -0.095216 -0.336063
  1H   1pz       -0.191825 -0.301798 -0.574878 -0.336863 -0.704476 -0.073184
  1H   1px        0.176055 -0.000011 -0.030878  0.000003 -0.000133  0.862064
  1H   1py       -0.097959  0.590951 -0.293587  0.659548 -0.359809 -0.037394
  2H   1s        -0.470050  0.000001  0.642446 -0.000008  0.392391  0.237070
  2H   2s        -0.546304  0.000042  0.154624 -0.000002  0.095176  0.336086
  2H   1pz       -0.211642  0.301836 -0.165661 -0.336898  0.234684  0.748260
  2H   1px        0.144483 -0.000022  0.618830  0.000004 -0.745907  0.209871
  2H   1py       -0.108146 -0.590877 -0.084631  0.659593  0.119880  0.382198
                     18        19        20        21        22        23
                   2.23966   2.92790   3.02157   3.14490   3.53898   3.78122
                   0.00000   0.00000   0.00000   0.00000   0.00000   0.00000
                  --------  --------  --------  --------  --------  --------
  0O   1s         0.147627  0.000000 -0.000014 -0.010015  0.075774  0.000005
  0O   2s         0.706886 -0.000017 -0.000041  0.055284  0.153223  0.000020
  0O   3s         0.736656  0.000171 -0.000128 -0.673328  1.805507  0.000006
  0O   1pz       -0.393178 -0.007940  0.000046  0.038047 -0.257491 -0.236043
  0O   1px        0.312222  0.000009  0.000009 -0.030161  0.204484 -0.374827
  0O   1py       -0.200827  0.015508 -0.000010  0.019433 -0.131525 -0.120557
  0O   2pz       -0.179182  0.130219  0.000041  0.430094 -0.559568 -0.588916
  0O   2px        0.142259  0.000029 -0.000057 -0.341430  0.444324 -0.935205
  0O   2py       -0.091511 -0.255227  0.000101  0.219628 -0.285803 -0.300802
  0O   1dz2      -0.044757 -0.585076  0.427943 -0.310060  0.038466  0.852889
  0O   1dxz      -0.038811  0.268258  0.392257  0.766446  0.543917  0.391019
  0O   1dyz      -0.198584  0.488980 -0.357633 -0.496419  0.603521  0.502992
  0O   1dx2y2    -0.209787 -0.337817  0.247059 -0.181824  0.806798 -0.749311
  0O   1dxy      -0.019840 -0.525497 -0.767849  0.391452  0.277788  0.199725
  1H   1s        -0.415381 -0.000058  0.000075  0.377637 -1.073192  1.031121
  1H   2s        -0.212268 -0.000011  0.000014  0.086081 -0.226848  0.269843
  1H   1pz        0.069312 -0.178676 -0.175467 -0.428447 -0.056210  0.005510
  1H   1px        0.874973  0.000036 -0.000042 -0.184718  0.788866 -0.780591
  1H   1py        0.035416  0.350031  0.343433 -0.218806 -0.028699  0.002809
  2H   1s        -0.415371 -0.000120  0.000104  0.377729 -1.073136 -1.031141
  2H   2s        -0.212254 -0.000033  0.000020  0.086102 -0.226835 -0.269847
  2H   1pz       -0.711498 -0.178716  0.175565  0.012315 -0.681037 -0.657275
  2H   1px       -0.365003 -0.000098  0.000077  0.515167 -0.203430 -0.254331
  2H   1py       -0.363439  0.349809 -0.343561  0.006406 -0.347866 -0.335725

MULLIKEN ATOMIC CHARGES
-----------------------
   0 O :   -0.314670
   1 H :    0.157330
   2 H :    0.157340
Sum of atomic charges:   -0.0000000

LOEWDIN ATOMIC CHARGES
----------------------
   0 O :   -0.155286
   1 H :    0.077637
   2 H :    0.077649

  Mayer bond orders larger than 0.100000
B(  0-O ,  1-H ) :   1.0024 B(  0-O ,  2-H ) :   1.0024

FINAL SINGLE POINT ENERGY       -76.320253575020

DIPOLE MOMENT
-------------
                                X             Y             Z
Electronic contribution:     -0.10244       0.06595       0.12903
Nuclear contribution   :      0.53826      -0.34625      -0.67791
                        -----------------------------------------
Total Dipole Moment    :      0.43582      -0.28031      -0.54888
                        -----------------------------------------
Magnitude (a.u.)       :      0.75484
Magnitude (Debye)      :      1.91864

Rotational constants in cm-1:    30.020816    13.330758     9.231504
Rotational constants in MHz : 900001.415264 399646.078923 276753.533742

                             ****ORCA TERMINATED NORMALLY****
TOTAL RUN TIME: 0 days 0 hours 0 minutes 2 seconds 787 msec
